2
Lattice="1.37763507 -2.386133936 0.0 1.37763507 2.386133936 -0.0 0.0 -0.0 4.781785251" Properties=species:S:1:pos:R:3:forces:R:3 magmom=0.0003385 stress="-0.0015117184763254285 -0.0 -0.0 -0.0 -0.0015117184763254285 -0.0 -0.0 -0.0 0.000628039372773751" free_energy=-12.08203639 energy=-12.0820443 pbc="T T T"
Pt       1.37764000      -0.79538000       3.58634000       0.00000000       0.00000000       0.00000000
Pt       1.37764000       0.79538000       1.19545000      -0.00000000      -0.00000000      -0.00000000
2
Lattice="1.378691872 -2.387964371 -0.0 1.378691872 2.387964371 0.0 0.0 -0.0 4.777262973" Properties=species:S:1:pos:R:3:forces:R:3 magmom=2.32e-05 stress="0.0007220552247369307 0.0 -0.0 0.0 0.0007220552247369307 -0.0 -0.0 -0.0 0.0009261962637171942" free_energy=-12.08190204 energy=-12.08187239 pbc="T T T"
Pt       1.37869000      -0.79599000       3.58295000      -0.00000000      -0.00000000      -0.00000000
Pt       1.37869000       0.79599000       1.19432000       0.00000000       0.00000000       0.00000000
2
Lattice="1.378429064 -2.387509173 0.0 1.378429064 2.387509173 0.0 0.0 -0.0 4.776238366" Properties=species:S:1:pos:R:3:forces:R:3 magmom=3e-07 stress="-0.0003223677048427444 0.0 -0.0 0.0 -0.0003223677048427444 -0.0 -0.0 -0.0 -0.00013034767658494595" free_energy=-12.08193451 energy=-12.0819052 pbc="T T T"
Pt       1.37843000      -0.79584000       3.58218000      -0.00000000       0.00000000       0.00000000
Pt       1.37843000       0.79584000       1.19406000       0.00000000      -0.00000000      -0.00000000
2
Lattice="1.378429064 -2.387509173 0.0 1.378429064 2.387509173 0.0 0.0 0.0 4.776238366" Properties=species:S:1:pos:R:3:forces:R:3 magmom=4e-07 stress="-0.00013236992554173214 0.0 0.0 0.0 -0.00013236992554173214 -0.0 0.0 -0.0 7.955427531850801e-05" free_energy=-12.08191966 energy=-12.08189026 pbc="T T T"
Pt       1.37843000      -0.79584000       3.58218000      -0.00000000      -0.00000000      -0.00000000
Pt       1.37843000       0.79584000       1.19406000       0.00000000       0.00000000       0.00000000
2
Lattice="1.378429064 -2.387509173 0.0 1.378429064 2.387509173 0.0 0.0 0.0 4.776238366" Properties=species:S:1:pos:R:3:forces:R:3 magmom=4e-07 stress="-0.00013236992554173214 0.0 0.0 0.0 -0.00013236992554173214 -0.0 0.0 -0.0 7.955427531850801e-05" free_energy=-12.08191966 energy=-12.08189026 pbc="T T T"
Pt       1.37843000      -0.79584000       3.58218000      -0.00000000      -0.00000000      -0.00000000
Pt       1.37843000       0.79584000       1.19406000       0.00000000       0.00000000       0.00000000
